LAMMPS data file. CGCMM style. atom_style full generated by VMD/TopoTools v1.7 on Mon Jun 30 17:43:15 EDT 2025

35 atoms
40 bonds
66 angles
97 dihedrals
12 impropers
11 atom types
14 bond types
25 angle types
43 dihedral types
9 improper types
-30.44 31.64 xlo xhi
-29.23 29.47 ylo yhi
-28.13 28.1 zlo zhi

Masses

1 12.01 # Lca1
2 16.0 # Loh1
3 12.01 # Sca0
4 15.034 # c33
5 12.01 # c50
6 14.026 # c52
7 12.01 # ca0
8 13.018 # ca1
9 12.01 # cg0
10 14.01 # n10
11 16.0 # os0

Pair Coeffs

1 0.059616 3.700000 # Lca1
2 0.139104 2.599999 # Loh1
3 0.059616 3.700000 # Sca0
4 0.194746 3.749998 # c33
5 0.000994 6.400003 # c50
6 0.091411 3.950004 # c52
7 0.041731 3.879998 # ca0
8 0.100354 3.695002 # ca1
9 0.119232 3.550000 # cg0
10 0.119232 2.949997 # n10
11 0.139104 2.599999 # os0

Bond Coeffs

1 354.25 1.3986 # Lca1,Lca1
2 354.25 1.3986 # Lca1,ca0
3 348.55 1.3644 # Loh1,Sca0
4 354.25 1.3986 # Sca0,Sca0
5 354.25 1.3986 # Sca0,ca0
6 354.25 1.3986 # Sca0,ca1
7 343.34 1.3688 # Sca0,os0
8 227.64 1.5372 # c33,c50
9 220.1 1.5483 # c50,c52
10 243.6 1.5151 # c50,ca0
11 354.25 1.3986 # ca0,ca0
12 354.25 1.3986 # ca0,ca1
13 317.41 1.4318 # ca0,cg0
14 744.03 1.1643 # cg0,n10

Angle Coeffs

1 63.67 120.02 # Lca1,Lca1,ca0
2 63.67 120.02 # Lca1,ca0,Sca0
3 62.85 120.25 # Lca1,ca0,cg0
4 78.86 119.9 # Loh1,Sca0,Sca0
5 78.86 119.9 # Loh1,Sca0,ca1
6 63.67 120.02 # Sca0,Sca0,ca0
7 63.67 120.02 # Sca0,Sca0,ca1
8 79.0 119.11 # Sca0,Sca0,os0
9 62.85 120.25 # Sca0,ca0,cg0
10 63.67 120.02 # Sca0,ca1,ca0
11 89.67 119.87 # Sca0,os0,Sca0
12 60.44 110.28 # c33,c50,c33
13 59.33 113.6 # c33,c50,c52
14 60.11 113.07 # c33,c50,ca0
15 61.84 103.83 # c50,c52,c50
16 60.47 121.87 # c50,ca0,ca0
17 60.47 121.87 # c50,ca0,ca1
18 61.84 103.83 # c52,c50,c52
19 62.2 104.83 # c52,c50,ca0
20 79.0 119.11 # ca0,Sca0,os0
21 60.71 112.52 # ca0,c50,ca0
22 63.67 120.02 # ca0,ca0,ca1
23 58.3 179.52 # ca0,cg0,n10
24 79.0 119.11 # ca1,Sca0,os0
25 63.67 120.02 # Sca0,ca0,Sca0

Dihedral Coeffs

1 1 3.625 2 180.0 # Lca1,Lca1,ca0,Sca0
2 1 3.625 2 180.0 # Lca1,Lca1,ca0,cg0
3 1 0.0 2 180.0 # Lca1,ca0,cg0,n10
4 1 3.625 2 180.0 # Loh1,Sca0,Sca0,Loh1
5 1 3.625 2 180.0 # Loh1,Sca0,Sca0,ca1
6 1 3.625 2 180.0 # Loh1,Sca0,ca1,ca0
7 1 3.625 2 180.0 # Sca0,Sca0,ca0,Lca1
8 1 3.625 2 180.0 # Sca0,Sca0,ca0,cg0
9 1 3.625 2 180.0 # Sca0,Sca0,ca1,ca0
10 1 0.9 2 180.0 # Sca0,Sca0,os0,Sca0
11 1 0.0 2 180.0 # Sca0,ca0,cg0,n10
12 1 0.52 3 0.0 # c33,c50,c52,c50
13 1 0.24 2 180.0 # c33,c50,ca0,ca0
14 1 0.24 2 180.0 # c33,c50,ca0,ca1
15 1 3.625 2 180.0 # c50,ca0,ca0,c50
16 1 3.625 2 180.0 # c50,ca0,ca0,ca1
17 1 3.625 2 180.0 # c50,ca0,ca1,Sca0
18 1 0.52 3 0.0 # c52,c50,c52,c50
19 1 0.24 2 180.0 # c52,c50,ca0,ca0
20 1 0.24 2 180.0 # c52,c50,ca0,ca1
21 1 3.625 2 180.0 # ca0,Lca1,Lca1,ca0
22 1 3.625 2 180.0 # ca0,Sca0,Sca0,ca0
23 1 3.625 2 180.0 # ca0,Sca0,Sca0,os0
24 1 0.9 2 180.0 # ca0,Sca0,os0,Sca0
25 1 0.15555555555555556 3 0.0 # ca0,c50,c52,c50
26 1 0.0 2 180.0 # ca0,c50,ca0,ca0
27 1 0.0 2 180.0 # ca0,c50,ca0,ca1
28 1 3.625 2 180.0 # ca0,ca0,ca1,Sca0
29 1 3.625 2 180.0 # ca1,Sca0,Sca0,ca1
30 1 3.625 2 180.0 # ca1,Sca0,Sca0,os0
31 1 0.9 2 180.0 # ca1,Sca0,os0,Sca0
32 1 3.625 2 180.0 # ca1,ca0,ca0,ca1
33 1 3.625 2 180.0 # os0,Sca0,Sca0,os0
34 1 3.625 2 180.0 # os0,Sca0,ca0,Lca1
35 1 3.625 2 180.0 # os0,Sca0,ca0,cg0
36 1 3.625 2 180.0 # os0,Sca0,ca1,ca0
37 1 3.625 2 180.0 # Sca0,ca0,Sca0,Sca0
38 1 3.625 2 180.0 # Sca0,ca0,Sca0,os0
39 1 3.625 2 180.0 # ca1,Sca0,Sca0,os0
40 1 3.625 2 180.0 # cg0,ca0,Sca0,Sca0
41 1 3.625 2 180.0 # ca1,Sca0,Sca0,os0
42 1 3.625 2 180.0 # Sca0,Sca0,ca0,cg0
43 1 3.625 2 180.0 # os0,Sca0,Sca0,ca0

Improper Coeffs

1 1.1 -1 2 # Lca1,Sca0,ca0,cg0
2 1.1 -1 2 # Loh1,Sca0,Sca0,ca1
3 1.1 -1 2 # Sca0,ca0,Sca0,os0
4 1.1 -1 2 # Sca0,ca1,Sca0,os0
5 1.1 -1 2 # c50,ca0,ca0,ca1
6 1.1 -1 2 # ca1,Sca0,Sca0,os0
7 1.1 -1 2 # cg0,ca0,Sca0,Sca0
8 1.1 -1 2 # Sca0,Sca0,ca0,cg0
9 1.1 -1 2 # os0,Sca0,Sca0,ca0

Atoms # full

1 1 2 0.17658 -5.437 3.147 1.509 # oh
2 1 3 0.22416 -4.664 2.13 1.036 # ca
3 1 3 0.26386 -3.648 1.703 1.896 # ca
4 1 2 0.19752 -3.481 2.288 3.101 # oh
5 1 8 -0.09728 -2.811 0.681 1.509 # ca
6 1 7 -0.10584 -2.985 0.087 0.263 # ca
7 1 5 0.03926 -2.186 -1.064 -0.327 # c5
8 1 6 -0.06812 -2.441 -2.416 0.406 # c5
9 1 5 0.18456 -1.114 -3.223 0.416 # c5
10 1 4 -0.12316 -0.932 -3.968 1.744 # c3
11 1 4 -0.11986 -1.045 -4.234 -0.743 # c3
12 1 7 -0.01994 -0.087 -2.119 0.216 # ca
13 1 7 -0.06524 -0.677 -0.935 -0.191 # ca
14 1 8 -0.14348 0.096 0.189 -0.443 # ca
15 1 3 0.19146 1.461 0.101 -0.286 # ca
16 1 3 0.21896 2.051 -1.082 0.118 # ca
17 1 11 -0.31354 3.411 -1.172 0.279 # os
18 1 3 0.17306 4.139 -0.059 0.074 # ca
19 1 7 -0.14734 5.508 -0.11 0.271 # ca
20 1 9 0.31756 6.122 -1.345 0.693 # cg
21 1 10 -0.44894 6.637 -2.301 1.025 # n1
22 1 1 0.32032 6.296 1.023 0.063 # ca
23 1 1 0.34362 5.71 2.197 -0.34 # ca
24 1 7 -0.14504 4.33 2.252 -0.538 # ca
25 1 9 0.31666 3.714 3.485 -0.964 # cg
26 1 10 -0.44894 3.263 4.471 -1.3 # n1
27 1 3 0.12686 3.545 1.131 -0.333 # ca
28 1 11 -0.28494 2.219 1.218 -0.537 # os
29 1 8 -0.17888 1.289 -2.2 0.372 # ca
30 1 6 -0.05292 -2.655 -1.033 -1.814 # c5
31 1 5 0.25536 -4.019 -0.293 -1.876 # c5
32 1 4 -0.15566 -5.205 -1.274 -1.872 # c3
33 1 4 -0.14796 -4.106 0.592 -3.126 # c3
34 1 7 -0.05544 -3.985 0.51 -0.585 # ca
35 1 8 -0.22728 -4.838 1.54 -0.196 # ca

Bonds

1 3 1 2
2 4 2 3
3 6 2 35
4 3 3 4
5 6 3 5
6 12 5 6
7 10 6 7
8 11 6 34
9 9 7 8
10 10 7 13
11 9 7 30
12 9 8 9
13 8 9 10
14 8 9 11
15 10 9 12
16 11 12 13
17 12 12 29
18 12 13 14
19 6 14 15
20 4 15 16
21 7 15 28
22 7 16 17
23 6 16 29
24 7 17 18
25 5 18 19
26 4 18 27
27 13 19 20
28 2 19 22
29 14 20 21
30 1 22 23
31 2 23 24
32 13 24 25
33 5 24 27
34 14 25 26
35 7 27 28
36 9 30 31
37 8 31 32
38 8 31 33
39 10 31 34
40 12 34 35

Angles

1 4 1 2 3
2 5 1 2 35
3 7 3 2 35
4 4 2 3 4
5 7 2 3 5
6 5 4 3 5
7 10 3 5 6
8 17 5 6 7
9 22 5 6 34
10 16 7 6 34
11 19 6 7 8
12 21 6 7 13
13 19 6 7 30
14 19 8 7 13
15 18 8 7 30
16 19 13 7 30
17 15 7 8 9
18 13 8 9 10
19 13 8 9 11
20 19 8 9 12
21 12 10 9 11
22 14 10 9 12
23 14 11 9 12
24 16 9 12 13
25 17 9 12 29
26 22 13 12 29
27 16 7 13 12
28 17 7 13 14
29 22 12 13 14
30 10 13 14 15
31 7 14 15 16
32 24 14 15 28
33 8 16 15 28
34 8 15 16 17
35 7 15 16 29
36 24 17 16 29
37 11 16 17 18
38 20 17 18 19
39 8 17 18 27
40 6 19 18 27
41 9 18 19 20
42 2 18 19 22
43 3 20 19 22
44 23 19 20 21
45 1 19 22 23
46 1 22 23 24
47 3 23 24 25
48 2 23 24 27
49 9 25 24 27
50 23 24 25 26
51 6 18 27 24
52 8 18 27 28
53 20 24 27 28
54 11 15 28 27
55 10 12 29 16
56 15 7 30 31
57 13 30 31 32
58 13 30 31 33
59 19 30 31 34
60 12 32 31 33
61 14 32 31 34
62 14 33 31 34
63 16 6 34 31
64 22 6 34 35
65 17 31 34 35
66 10 2 35 34

Dihedrals

1 4 1 2 3 4
2 5 1 2 3 5
3 5 35 2 3 4
4 29 35 2 3 5
5 6 1 2 35 34
6 9 3 2 35 34
7 9 2 3 5 6
8 6 4 3 5 6
9 17 3 5 6 7
10 28 3 5 6 34
11 20 5 6 7 8
12 27 5 6 7 13
13 20 5 6 7 30
14 19 34 6 7 8
15 26 34 6 7 13
16 19 34 6 7 30
17 16 5 6 34 31
18 32 5 6 34 35
19 15 7 6 34 31
20 16 7 6 34 35
21 25 6 7 8 9
22 25 13 7 8 9
23 18 30 7 8 9
24 26 6 7 13 12
25 27 6 7 13 14
26 19 8 7 13 12
27 20 8 7 13 14
28 19 30 7 13 12
29 20 30 7 13 14
30 25 6 7 30 31
31 18 8 7 30 31
32 25 13 7 30 31
33 12 7 8 9 10
34 12 7 8 9 11
35 25 7 8 9 12
36 19 8 9 12 13
37 20 8 9 12 29
38 13 10 9 12 13
39 14 10 9 12 29
40 13 11 9 12 13
41 14 11 9 12 29
42 15 9 12 13 7
43 16 9 12 13 14
44 16 29 12 13 7
45 32 29 12 13 14
46 17 9 12 29 16
47 28 13 12 29 16
48 17 7 13 14 15
49 28 12 13 14 15
50 9 13 14 15 16
51 36 13 14 15 28
52 30 14 15 16 17
53 29 14 15 16 29
54 33 28 15 16 17
55 30 28 15 16 29
56 31 14 15 28 27
57 10 16 15 28 27
58 10 15 16 17 18
59 31 29 16 17 18
60 9 15 16 29 12
61 36 17 16 29 12
62 24 16 17 18 19
63 10 16 17 18 27
64 35 17 18 19 20
65 34 17 18 19 22
66 8 27 18 19 20
67 7 27 18 19 22
68 23 17 18 27 24
69 33 17 18 27 28
70 22 19 18 27 24
71 23 19 18 27 28
72 11 18 19 20 21
73 3 22 19 20 21
74 1 18 19 22 23
75 2 20 19 22 23
76 21 19 22 23 24
77 2 22 23 24 25
78 1 22 23 24 27
79 3 23 24 25 26
80 11 27 24 25 26
81 7 23 24 27 18
82 34 23 24 27 28
83 8 25 24 27 18
84 35 25 24 27 28
85 10 18 27 28 15
86 24 24 27 28 15
87 12 7 30 31 32
88 12 7 30 31 33
89 25 7 30 31 34
90 19 30 31 34 6
91 20 30 31 34 35
92 13 32 31 34 6
93 14 32 31 34 35
94 13 33 31 34 6
95 14 33 31 34 35
96 28 6 34 35 2
97 17 31 34 35 2

Impropers

1 2 35 2 3 1
2 2 4 2 3 5
3 5 5 6 34 7
4 5 29 12 13 9
5 5 7 12 13 14
6 4 16 14 15 28
7 4 17 16 29 15
8 3 17 18 19 27
9 1 22 18 19 20
10 1 25 24 27 23
11 3 18 24 27 28
12 5 31 6 34 35
