LAMMPS data file via write_data, version 29 Aug 2024, timestep = 1560000, units = real

3500 atoms
11 atom types
4192 bonds
14 bond types
7176 angles
25 angle types
11140 dihedrals
43 dihedral types
1392 impropers
9 improper types

9.049606570057684 50.95039342994711 xlo xhi
9.049606570057684 50.95039342994711 ylo yhi
9.049606570057684 50.95039342994711 zlo zhi

Masses

1 12.01 # Lca1
2 16.0 # Loh1
3 12.01 # Sca0
4 15.034 # c33
5 12.01 # c50
6 14.026 # c52
7 12.01 # ca0
8 13.018 # ca1
9 12.01 # cg0
10 14.01 # n10
11 16.0 # os0

Pair Coeffs

1 0.059616 3.700000 # Lca1
2 0.139104 2.599999 # Loh1
3 0.059616 3.700000 # Sca0
4 0.194746 3.749998 # c33
5 0.000994 6.400003 # c50
6 0.091411 3.950004 # c52
7 0.041731 3.879998 # ca0
8 0.100354 3.695002 # ca1
9 0.119232 3.550000 # cg0
10 0.119232 2.949997 # n10
11 0.139104 2.599999 # os0

Bond Coeffs

1 354.25 1.3986 # Lca1,Lca1
2 354.25 1.3986 # Lca1,ca0
3 348.55 1.3644 # Loh1,Sca0
4 354.25 1.3986 # Sca0,Sca0
5 354.25 1.3986 # Sca0,ca0
6 354.25 1.3986 # Sca0,ca1
7 343.34 1.3688 # Sca0,os0
8 227.64 1.5372 # c33,c50
9 220.1 1.5483 # c50,c52
10 243.6 1.5151 # c50,ca0
11 354.25 1.3986 # ca0,ca0
12 354.25 1.3986 # ca0,ca1
13 317.41 1.4318 # ca0,cg0
14 744.03 1.1643 # cg0,n10

Angle Coeffs

1 63.67 120.02 # Lca1,Lca1,ca0
2 63.67 120.02 # Lca1,ca0,Sca0
3 62.85 120.25 # Lca1,ca0,cg0
4 78.86 119.9 # Loh1,Sca0,Sca0
5 78.86 119.9 # Loh1,Sca0,ca1
6 63.67 120.02 # Sca0,Sca0,ca0
7 63.67 120.02 # Sca0,Sca0,ca1
8 79.0 119.11 # Sca0,Sca0,os0
9 62.85 120.25 # Sca0,ca0,cg0
10 63.67 120.02 # Sca0,ca1,ca0
11 89.67 119.87 # Sca0,os0,Sca0
12 60.44 110.28 # c33,c50,c33
13 59.33 113.6 # c33,c50,c52
14 60.11 113.07 # c33,c50,ca0
15 61.84 103.83 # c50,c52,c50
16 60.47 121.87 # c50,ca0,ca0
17 60.47 121.87 # c50,ca0,ca1
18 61.84 103.83 # c52,c50,c52
19 62.2 104.83 # c52,c50,ca0
20 79.0 119.11 # ca0,Sca0,os0
21 60.71 112.52 # ca0,c50,ca0
22 63.67 120.02 # ca0,ca0,ca1
23 58.3 179.52 # ca0,cg0,n10
24 79.0 119.11 # ca1,Sca0,os0
25 63.67 120.02 # Sca0,ca0,Sca0

Dihedral Coeffs

1 1 3.625 2 180.0 # Lca1,Lca1,ca0,Sca0
2 1 3.625 2 180.0 # Lca1,Lca1,ca0,cg0
3 1 0.0 2 180.0 # Lca1,ca0,cg0,n10
4 1 3.625 2 180.0 # Loh1,Sca0,Sca0,Loh1
5 1 3.625 2 180.0 # Loh1,Sca0,Sca0,ca1
6 1 3.625 2 180.0 # Loh1,Sca0,ca1,ca0
7 1 3.625 2 180.0 # Sca0,Sca0,ca0,Lca1
8 1 3.625 2 180.0 # Sca0,Sca0,ca0,cg0
9 1 3.625 2 180.0 # Sca0,Sca0,ca1,ca0
10 1 0.9 2 180.0 # Sca0,Sca0,os0,Sca0
11 1 0.0 2 180.0 # Sca0,ca0,cg0,n10
12 1 0.52 3 0.0 # c33,c50,c52,c50
13 1 0.24 2 180.0 # c33,c50,ca0,ca0
14 1 0.24 2 180.0 # c33,c50,ca0,ca1
15 1 3.625 2 180.0 # c50,ca0,ca0,c50
16 1 3.625 2 180.0 # c50,ca0,ca0,ca1
17 1 3.625 2 180.0 # c50,ca0,ca1,Sca0
18 1 0.52 3 0.0 # c52,c50,c52,c50
19 1 0.24 2 180.0 # c52,c50,ca0,ca0
20 1 0.24 2 180.0 # c52,c50,ca0,ca1
21 1 3.625 2 180.0 # ca0,Lca1,Lca1,ca0
22 1 3.625 2 180.0 # ca0,Sca0,Sca0,ca0
23 1 3.625 2 180.0 # ca0,Sca0,Sca0,os0
24 1 0.9 2 180.0 # ca0,Sca0,os0,Sca0
25 1 0.15555555555555556 3 0.0 # ca0,c50,c52,c50
26 1 0.0 2 180.0 # ca0,c50,ca0,ca0
27 1 0.0 2 180.0 # ca0,c50,ca0,ca1
28 1 3.625 2 180.0 # ca0,ca0,ca1,Sca0
29 1 3.625 2 180.0 # ca1,Sca0,Sca0,ca1
30 1 3.625 2 180.0 # ca1,Sca0,Sca0,os0
31 1 0.9 2 180.0 # ca1,Sca0,os0,Sca0
32 1 3.625 2 180.0 # ca1,ca0,ca0,ca1
33 1 3.625 2 180.0 # os0,Sca0,Sca0,os0
34 1 3.625 2 180.0 # os0,Sca0,ca0,Lca1
35 1 3.625 2 180.0 # os0,Sca0,ca0,cg0
36 1 3.625 2 180.0 # os0,Sca0,ca1,ca0
37 1 3.625 2 180.0 # Sca0,ca0,Sca0,Sca0
38 1 3.625 2 180.0 # Sca0,ca0,Sca0,os0
39 1 3.625 2 180.0 # ca1,Sca0,Sca0,os0
40 1 3.625 2 180.0 # cg0,ca0,Sca0,Sca0
41 1 3.625 2 180.0 # ca1,Sca0,Sca0,os0
42 1 3.625 2 180.0 # Sca0,Sca0,ca0,cg0
43 1 3.625 2 180.0 # os0,Sca0,Sca0,ca0

Improper Coeffs

1 1.1 -1 2 # Lca1,Sca0,ca0,cg0
2 1.1 -1 2 # Loh1,Sca0,Sca0,ca1
3 1.1 -1 2 # Sca0,ca0,Sca0,os0
4 1.1 -1 2 # Sca0,ca1,Sca0,os0
5 1.1 -1 2 # c50,ca0,ca0,ca1
6 1.1 -1 2 # ca1,Sca0,Sca0,os0
7 1.1 -1 2 # cg0,ca0,Sca0,Sca0
8 1.1 -1 2 # Sca0,Sca0,ca0,cg0
9 1.1 -1 2 # os0,Sca0,Sca0,ca0

Atoms # full

1 1 11 0.17658 15.931922311017779 34.28567832028604 45.41156189306429 1 0 -1
2 1 3 0.22416 16.99081548171194 34.55131282542687 44.606889758754825 1 0 -1
3 1 3 0.26386 16.82458433141364 35.103443209431134 43.29293712044554 1 0 -1
4 1 11 0.19752 15.536655027933467 35.293844167915054 42.76393596183821 1 0 -1
5 1 8 -0.09728000000000001 17.938312308092538 35.505536900705124 42.56352434898238 1 0 -1
6 1 7 -0.10584 19.197942866928226 35.11970969572084 43.024522819649754 1 0 -1
7 1 5 0.03926 20.546304792143737 35.60824243577518 42.42866008721653 1 0 -1
8 1 6 -0.06812 20.676428424341793 37.06599642610189 43.06277404159847 1 0 -1
9 1 5 0.18456 21.405839042244267 38.05958124220493 42.06597847850172 1 0 -1
10 1 4 -0.12316 20.658745139707083 39.43178491011381 41.92460683628104 1 0 -1
11 1 4 -0.11986 22.84495523008894 38.37911603756516 42.529386408146095 1 0 -1
12 1 7 -0.01994 21.353053586534635 37.22018326755345 40.74912050113852 1 0 -1
13 1 7 -0.06524000000000001 20.977981924096625 35.85981395529302 40.95677124491057 1 0 -1
14 1 8 -0.14348 20.909369452045322 34.87768893539929 39.92921016529854 1 0 -1
15 1 3 0.19146 21.320663611456908 35.334921410007354 38.617600705799276 1 0 -1
16 1 3 0.21896 21.571751072857147 36.7904768488565 38.37437226751889 1 0 -1
17 1 11 -0.31354 21.604351812417228 37.23144916804193 37.05758974823638 1 0 -1
18 1 3 0.17306 20.937380364321147 36.444195533344896 36.1584279999024 1 0 -1
19 1 7 -0.14734 20.57200360077868 37.02685854954264 34.9816858808834 1 0 -1
20 1 9 0.31756 20.621273680898 38.46566281862792 34.75569496312969 1 0 -1
21 1 10 -0.44894 20.60801000056105 39.56823794385761 34.47144550485674 1 0 -1
22 1 3 0.32032 19.87819958301888 36.286576350437855 34.06484348134213 1 0 -1
23 1 3 0.34362 19.751498945901012 34.804510293038376 34.23889540858981 1 0 -1
24 1 7 -0.14504 20.21384282794947 34.168194581719135 35.44090021438492 1 0 -1
25 1 9 0.31666 19.986602993980334 32.8160059392502 35.839135485422034 1 0 -1
26 1 10 -0.44894 19.978432270868808 31.743845854246327 36.23123692521479 1 0 -1
27 1 3 0.12686 20.84333976905534 35.02601243350746 36.37051417028787 1 0 -1
28 1 11 -0.28494 21.247136962039917 34.51369531600848 37.52189102996442 1 0 -1
29 1 8 -0.17888 21.53159128792168 37.72159447437629 39.462645372782745 1 0 -1
30 1 6 -0.05292 21.546935945246773 34.57201617659869 43.12773102779224 1 0 -1
31 1 5 0.25536 20.868862748382305 33.92613314183882 44.444786798687545 1 0 -1
32 1 4 -0.15566 21.58504847269821 34.51795654055722 45.67395975368424 1 0 -1
33 1 4 -0.14796 21.07503034067736 32.423248072853134 44.54953614973641 1 0 -1
34 1 7 -0.05544 19.40294422364754 34.29150331217572 44.16208759151835 1 0 -1
35 1 8 -0.22728 18.284019695913138 34.08195547050556 45.04793935421008 1 0 -1
36 1 11 0.17658 29.79714611194473 41.032382063337124 49.299972112349806 0 0 -1
37 1 3 0.22416 28.42202919594022 40.929263588348775 48.911487471692 0 0 -1
38 1 3 0.26386 28.03279736747143 41.36632377050303 47.62242382319018 0 0 -1
39 1 11 0.19752 28.96445993620687 41.48865681705785 46.66781041415931 0 0 -1
40 1 8 -0.09728000000000001 26.664607189827382 41.63274836430517 47.31631697320319 0 0 -1
41 1 7 -0.10584 25.733312071018126 41.461499401173754 48.31001981094194 0 0 -1
42 1 5 0.03926 24.1721983032144 41.43543655777762 48.052422086279314 0 0 -1
43 1 6 -0.06812 23.873516700719932 40.737851376870964 46.60427359032405 0 0 -1
44 1 5 0.18456 22.59784993855194 41.425307542474805 46.00683809807843 0 0 -1
45 1 4 -0.12316 22.88792168515436 41.82124500054805 44.520565304648635 0 0 -1
46 1 4 -0.11986 21.321412420272658 40.421983282021486 45.96191056503272 0 0 -1
47 1 7 -0.01994 22.355131298155932 42.60354443858167 46.986414943702364 0 0 -1
48 1 7 -0.06524000000000001 23.388705384705872 42.71302937051952 47.921629168399136 0 0 -1
49 1 8 -0.14348 23.537275522893726 43.8657497221256 48.748722513141054 0 0 -1
50 1 3 0.19146 22.612232111540315 44.924505720878926 48.60864680842107 0 0 -1
51 1 3 0.21896 21.508810243383884 44.74046811893894 47.76762524315768 0 0 -1
52 1 11 -0.31354 20.365968221444 45.513199904791925 48.12137601569563 0 0 -1
53 1 3 0.17306 20.468716969219706 46.600852396997205 48.91677654007044 0 0 -1
54 1 7 -0.14734 19.43670561902526 47.52960579527214 49.020252053707054 0 0 -1
55 1 9 0.31756 18.199940645964272 47.29158339013045 48.298154881757185 0 0 -1
56 1 10 -0.44894 17.137321509595953 47.041451066374464 47.90077556179578 0 0 -1
57 1 3 0.32032 19.438130398146612 48.54993025074846 50.05273676823142 0 0 -1
58 1 3 0.34362 20.60666935997763 48.625093436170914 50.93706070923833 0 0 -1
59 1 7 -0.14504 21.735140555403856 47.783187801747964 50.65335212640161 0 0 -1
60 1 9 0.31666 23.00430388192563 48.016436882918356 9.392797699276892 0 0 0
61 1 10 -0.44894 24.009878018552765 48.25583859331895 9.876342887742329 0 0 0
62 1 3 0.12686 21.67790957047858 46.817701476627896 49.60542799659092 0 0 -1
63 1 11 -0.28494 22.726371383412122 45.970653630796605 49.47273924255948 0 0 -1
64 1 8 -0.17888 21.31898771751967 43.61358577168581 46.94719733178518 0 0 -1
65 1 6 -0.05292 23.746150229212656 40.66571791962335 49.42835458226983 0 0 -1
66 1 5 0.25536 24.97347861105642 40.215685966031884 50.305155259621785 0 0 -1
67 1 4 -0.15566 25.037709605792116 38.681503222202906 50.36791151756683 0 0 -1
68 1 4 -0.14796 24.89604403971067 40.80309543524524 9.759577352564001 0 0 0
69 1 7 -0.05544 26.101399744931932 40.80875629040764 49.52452399977393 0 0 -1
70 1 8 -0.22728 27.46274906488962 40.62078179179821 49.87562510773064 0 0 -1
71 1 11 0.17658 11.710676491957871 47.0034377566415 48.43028530893875 0 0 0
72 1 3 0.22416 12.400672223238224 46.24690750434466 49.28062510699566 0 0 0
73 1 3 0.26386 13.831748569694007 46.37790534867497 49.27064037340934 0 0 0
74 1 11 0.19752 14.436769700008444 47.19332005601914 48.35973716884062 0 0 0
75 1 8 -0.09728000000000001 14.578589586354067 45.677403441200305 50.25505438217901 0 0 0
76 1 7 -0.10584 13.863688043707882 44.88561761454844 9.315793268261093 0 0 1
77 1 5 0.03926 14.520762888555751 43.95778742658275 10.397832179520215 0 0 1
78 1 6 -0.06812 14.901152216592614 44.72941506107223 11.63457144940795 0 0 1
79 1 5 0.18456 16.422382987278887 44.70838956266938 11.989245775912584 0 0 1
80 1 4 -0.12316 16.90756072157091 46.124606292390965 11.717620881236831 0 0 1
81 1 4 -0.11986 16.825252541940785 44.386667726734714 13.424732448805456 0 0 1
82 1 7 -0.01994 16.86741111648381 43.6505223341274 11.011390978299566 0 0 1
83 1 7 -0.06524000000000001 15.797455413363197 43.20555685877853 10.190826662396688 0 0 1
84 1 8 -0.14348 15.936289225356994 42.13049175307169 9.214952228546132 0 0 1
85 1 3 0.19146 17.150190406811987 41.42660781965808 9.32576200870234 0 0 1
86 1 3 0.21896 18.165327877956738 41.72220244565614 10.344370352135178 0 0 1
87 1 11 -0.31354 19.252691492585505 40.88569491061175 10.48338366456344 0 0 1
88 1 3 0.17306 19.449690962884375 39.81062731055504 9.661585813978624 0 0 1
89 1 7 -0.14734 20.504468998344322 38.91621722930705 9.800408554775277 0 0 1
90 1 9 0.31756 21.500707081214987 39.15235476266727 10.768932103405236 0 0 1
91 1 10 -0.44894 22.284119326834194 39.33058663690631 11.592040489153803 0 0 1
92 1 3 0.32032 20.637925801416547 37.82670928828526 50.878455446493405 0 0 0
93 1 3 0.34362 19.63338586783166 37.53689624301629 49.87548860116137 0 0 0
94 1 7 -0.14504 18.46566262931939 38.288239004331714 49.75342682180797 0 0 0
95 1 9 0.31666 17.34330275122489 37.85502118444548 49.01553829775652 0 0 0
96 1 10 -0.44894 16.465973674555787 37.51424999256484 48.3031120302818 0 0 0
97 1 3 0.12686 18.365760214671056 39.44271636178381 50.57258371551698 0 0 0
98 1 11 -0.28494 17.321594460099714 40.25347147001672 50.44585365509648 0 0 0
99 1 8 -0.17888 18.044204097813687 42.87524014894446 11.149429355449756 0 0 1
100 1 6 -0.05292 13.270789917455648 43.101351628695234 10.962941407563662 0 0 1
101 1 5 0.25536 11.888186084597155 43.673484116185804 10.329420317418652 0 0 1
102 1 4 -0.15566 10.909001478849875 44.37702524284453 11.21352228643574 0 0 1
103 1 4 -0.14796 11.198593494549591 42.46531768570943 9.567864819668678 0 0 1
104 1 7 -0.05544 12.434062802436152 44.615481759177406 9.185850915311045 0 0 1
105 1 8 -0.22728 11.748716056932588 45.30743014543852 50.09009573741557 0 0 0
106 4 11 0.17658 19.908431410925076 20.469862826853102 27.316184503547504 0 0 0
107 4 3 0.22416 19.765580514919577 20.56793699877226 25.98062227588142 0 0 0
108 4 3 0.26386 19.922648495259015 21.83726474394772 25.41587767076199 0 0 0
109 4 11 0.19752 20.279648468937634 22.910809956547098 26.221535591248262 0 0 0
110 4 8 -0.09728000000000001 19.887752772122855 21.9280671957351 24.04324311594737 0 0 0
111 4 7 -0.10584 19.90313506804391 20.754641307722252 23.238889689416855 0 0 0
112 4 5 0.03926 19.87825556791217 20.734858929540415 21.62376016946676 0 0 0
113 4 6 -0.06812 21.09800520541168 21.506437397298185 21.038622662440787 0 0 0
114 4 5 0.18456 20.613419891750084 22.74418266702012 20.24187592496107 0 0 0
115 4 4 -0.12316 21.31687823348346 24.11157393456693 20.593861524974 0 0 0
116 4 4 -0.11986 20.948528872631066 22.52079388962963 18.70662711035221 0 0 0
117 4 7 -0.01994 19.051460787541316 22.675305031167156 20.43666560336832 0 0 0
118 4 7 -0.06524000000000001 18.716723361619742 21.420270621940798 20.999479630367528 0 0 0
119 4 8 -0.14348 17.33851984288292 21.15461097133167 21.360941891883183 0 0 0
120 4 3 0.19146 16.393510739591754 22.054437515845212 20.980240811923032 0 0 0
121 4 3 0.21896 16.723956172242886 23.30178076356772 20.45345032620874 0 0 0
122 4 11 -0.31354 15.748395227346432 24.272956660291335 20.42301974769058 0 0 0
123 4 3 0.17306 14.393697505485353 24.02496496881349 20.689321719887083 0 0 0
124 4 7 -0.14734 13.343805277476402 24.931610892885384 20.648733747850983 0 0 0
125 4 9 0.31756 13.5438199418008 26.31282544991555 20.695953077267355 0 0 0
126 4 10 -0.44894 13.76372665169918 27.438148284524342 20.88071731145712 0 0 0
127 4 1 0.32032 11.971693837959979 24.53297525137001 20.75945106836818 0 0 0
128 4 1 0.34362 11.63879674416685 23.19176743984625 20.84067662044214 0 0 0
129 4 7 -0.14504 12.66013777849735 22.227013526675762 21.021076949299154 0 0 0
130 4 9 0.31666 12.41766847767407 20.87660247161485 20.965293962476366 0 0 0
131 4 10 -0.44894 12.278916088871497 19.72392586522824 20.925605465510802 0 0 0
132 4 3 0.12686 14.064245595443749 22.668869146074854 21.03259481136299 0 0 0
133 4 11 -0.28494 15.10634187773187 21.802486494260442 21.401692460446284 0 0 0
134 4 8 -0.17888 18.040394778582463 23.60021767107856 20.04058938750758 0 0 0
135 4 6 -0.05292 19.934693247805406 19.160605098688812 21.349061657022006 0 0 0
136 4 5 0.25536 19.936745155623484 18.374867536874113 22.731622335168293 0 0 0
137 4 4 -0.15566 21.222455895850857 17.492127276818913 22.713303806713096 0 0 0
138 4 4 -0.14796 18.76682699271243 17.42116054154825 22.901498978196813 0 0 0
139 4 7 -0.05544 19.87131141246187 19.462000435686495 23.77921195628965 0 0 0
140 4 8 -0.22728 19.805849847363397 19.33654758466104 25.193709790357442 0 0 0
141 3 11 0.17658 38.14675654047468 38.50184137053381 41.16429140136393 0 1 0
142 3 3 0.22416 38.5046979827526 39.399469099556114 40.13962565148211 0 1 0
143 3 3 0.26386 38.18478051772384 40.754931563243304 40.39541384832185 0 1 0
144 3 11 0.19752 37.249978789575664 41.061027754327384 41.353542043326584 0 1 0
145 3 8 -0.09728000000000001 38.54196048135496 41.726369202539345 39.47707599587867 0 1 0
146 3 7 -0.10584 39.14650690692318 41.45698130181227 38.23431551130764 0 1 0
147 3 5 0.03926 38.990675149590885 42.34067522196046 37.07012926450972 0 1 0
148 3 6 -0.06812 40.18065273472873 43.384891795357625 37.04224467684591 0 1 0
149 3 5 0.18456 39.666758761473986 44.79108438641839 37.66328343876514 0 1 0
150 3 4 -0.12316 40.0085789573653 44.96724368577026 39.15652449307085 0 1 0
151 3 4 -0.11986 40.259945022681514 45.94197627284856 36.830912164372215 0 1 0
152 3 7 -0.01994 38.167939278694696 44.624057717546705 37.4711098927849 0 1 0
153 3 7 -0.06524000000000001 37.805833726544705 43.30289315373918 37.07973322982325 0 1 0
154 3 8 -0.14348 36.41734582314521 42.92503911899944 37.162068231001484 0 1 0
155 3 3 0.19146 35.46941770320706 43.72338359998037 37.81699800284693 0 1 0
156 3 3 0.21896 35.88425544052278 44.8756265309956 38.43042377441626 0 1 0
157 3 11 -0.31354 35.02302225529825 45.53890264506354 39.32634711854459 0 1 0
158 3 3 0.17306 33.82658716629835 44.87662913018972 39.710338754228175 0 1 0
159 3 7 -0.14734 33.09394784366251 45.25781410158652 40.903830382542004 0 1 0
160 3 9 0.31756 33.60456816773076 46.2495279675267 41.79482829355406 0 1 0
161 3 10 -0.44894 34.04233098931951 47.04845835124005 42.490057620452106 0 1 0
162 3 3 0.32032 31.96597997940647 44.54855641084532 41.28323531786737 0 1 0
163 3 3 0.34362 31.608430163585624 43.373178085001165 40.62184776811777 0 1 0
164 3 7 -0.14504 32.26441283422878 42.96624993898987 39.39650260988964 0 1 0
165 3 9 0.31666 31.611291824958776 41.88760711166602 38.62858784808893 0 1 0
166 3 10 -0.44894 31.000847877521775 41.004211196618385 38.08724304225673 0 1 0
167 3 3 0.12686 33.426140050735846 43.7249094521125 38.96664751381534 0 1 0
168 3 11 -0.28494 34.15818541802459 43.28183536015689 37.941175110753576 0 1 0
169 3 8 -0.17888 37.21611922258273 45.38885858001612 38.205985968712554 0 1 0
170 3 6 -0.05292 39.11591616309728 41.369303335287604 35.850392712502185 0 1 0
171 3 5 0.25536 39.56908549628428 39.931154321162786 36.38761861102678 0 1 0
172 3 4 -0.15566 40.94499135147463 39.604293480841704 35.90485571100348 0 1 0
173 3 4 -0.14796 38.535518268571124 38.855606845027594 35.88532324928147 0 1 0
174 3 7 -0.05544 39.388586194440464 40.14107658989066 37.95168292777508 0 1 0
175 3 8 -0.22728 39.07477244399797 39.01111908351435 38.88109329871661 0 1 0
176 1 11 0.17658 31.565320125889002 42.366946160809476 25.112766894940385 0 0 0
177 1 3 0.22416 32.18021310279364 42.74025081060113 23.95615336596112 0 0 0
178 1 3 0.26386 32.2633280675511 41.83211719387831 22.823693321899405 0 0 0
179 1 11 0.19752 31.914312571557534 40.522072582841034 22.971052982420535 0 0 0
180 1 8 -0.09728000000000001 32.593273886542086 42.243010029151144 21.53396398496874 0 0 0
181 1 7 -0.10584 32.90453684007789 43.644042358964114 21.339019665358954 0 0 0
182 1 5 0.03926 33.280258730565066 44.24011629269836 19.990794628936968 0 0 0
183 1 6 -0.06812 32.07949120960263 44.20636478065263 18.960411615155714 0 0 0
184 1 5 0.18456 32.599608322572855 44.0934817260327 17.489570089198214 0 0 0
185 1 4 -0.12316 31.789721791105638 43.09031170767907 16.672723448444906 0 0 0
186 1 4 -0.11986 32.39006821874963 45.45151311939566 16.812872199420802 0 0 0
187 1 7 -0.01994 34.10658176595715 43.671863107816094 17.72221696774851 0 0 0
188 1 7 -0.06524000000000001 34.4020923519477 43.627243427787704 19.107877317041392 0 0 0
189 1 8 -0.14348 35.602676116910004 43.103203775619306 19.622502999066015 0 0 0
190 1 3 0.19146 36.57273550640864 42.60755595850886 18.677606034013586 0 0 0
191 1 3 0.21896 36.33252825375095 42.799953458744554 17.20039726722941 0 0 0
192 1 11 -0.31354 37.36063369988565 42.483623445804135 16.278274854132384 0 0 0
193 1 3 0.17306 38.63876222386189 42.28910240151662 16.781060741277763 0 0 0
194 1 7 -0.14734 39.781142457161515 42.343879119627374 15.948413371069707 0 0 0
195 1 9 0.31756 39.68125596981599 42.560525384004485 14.512792790761933 0 0 0
196 1 10 -0.44894 39.68828428102262 42.79262678749361 13.379672396854765 0 0 0
197 1 3 0.32032 41.03998417743797 42.22772586213246 16.5145751026542 0 0 0
198 1 3 0.34362 41.25106706721263 42.19465257940134 17.91247951187344 0 0 0
199 1 7 -0.14504 40.124862283143365 41.94240061279577 18.749074373614953 0 0 0
200 1 9 0.31666 40.39926845264354 41.78696900051008 20.173754157267094 0 0 0
201 1 10 -0.44894 40.55961814504701 41.6182206416236 21.296927959951844 0 0 0
202 1 3 0.12686 38.85966486697147 42.11262509757779 18.19284002479236 0 0 0
203 1 11 -0.28494 37.83604976913284 42.140098769729505 19.08254902217797 0 0 0
204 1 8 -0.17888 35.03634850811334 43.19213955300418 16.73046941825151 0 0 0
205 1 6 -0.05292 33.596987112758704 45.83331256753216 20.418782964420664 0 0 0
206 1 5 0.25536 33.53584905771369 45.99904419694855 22.02475665141943 0 0 0
207 1 4 -0.15566 34.99663013461682 46.180489872048774 22.52552642714104 0 0 0
208 1 4 -0.14796 32.778626763435796 47.26126470370395 22.351985654315563 0 0 0
209 1 7 -0.05544 32.936159271135935 44.60096920148565 22.420665455369992 0 0 0
210 1 8 -0.22728 32.52868739470672 44.11974909709879 23.72007196860953 0 0 0
211 1 11 0.17658 21.318000021002057 28.695340722593315 27.878040374903044 0 0 0
212 1 3 0.22416 22.21075249086491 29.01217031521351 28.922597247559192 0 0 0
213 1 3 0.26386 23.60863110272662 28.61540360408974 28.626118521997736 0 0 0
214 1 11 0.19752 23.910421582530418 28.30849053565431 27.23612489129329 0 0 0
215 1 8 -0.09728000000000001 24.63316434218968 28.96564132424599 29.55648372586889 0 0 0
216 1 7 -0.10584 24.264069932507788 29.892617508725248 30.627420318430907 0 0 0
217 1 5 0.03926 25.211722564007335 30.74339746564316 31.408508368566082 0 0 0
218 1 6 -0.06812 26.032377483608563 31.563462650521586 30.347011829764874 0 0 0
219 1 5 0.18456 27.55990991933813 31.06218679138545 30.39986353915499 0 0 0
220 1 4 -0.12316 27.884693447243336 30.208678483414186 29.122204745433464 0 0 0
221 1 4 -0.11986 28.447798401531557 32.25587247471823 30.328928373771237 0 0 0
222 1 7 -0.01994 27.632152704731347 30.2174254296263 31.688445163592586 0 0 0
223 1 7 -0.06524000000000001 26.32766670311581 30.11642936867951 32.28704048024633 0 0 0
224 1 8 -0.14348 26.171269926137676 29.744782610058042 33.63614283471142 0 0 0
225 1 3 0.19146 27.26807547873697 29.76305819708449 34.49574272723966 0 0 0
226 1 3 0.21896 28.561431787113598 29.911631196855495 33.97172818448854 0 0 0
227 1 11 -0.31354 29.466109238229546 30.646023874068035 34.75432131412334 0 0 0
228 1 3 0.17306 28.948407335225706 31.84964632649652 35.28685980404579 0 0 0
229 1 7 -0.14734 29.323937479886453 33.0707810433252 34.64544140210528 0 0 0
230 1 9 0.31756 30.53125367988285 33.005500839260876 33.83340022895764 0 0 0
231 1 10 -0.44894 31.553049448953526 32.973750351736754 33.29103650062649 0 0 0
232 1 3 0.32032 28.32367860795223 33.96829768281175 34.37581640925789 0 0 0
233 1 3 0.34362 27.112543306982527 33.97132528753929 35.11120054299188 0 0 0
234 1 7 -0.14504 26.781971649051094 32.84246181767063 35.83571255694782 0 0 0
235 1 9 0.31666 25.477608821459818 32.56613975475754 36.44221703584037 0 0 0
236 1 10 -0.44894 24.405620679921874 32.25441589357757 36.76163186989089 0 0 0
237 1 3 0.12686 27.65718321143314 31.673098815580744 35.864964842150926 0 0 0
238 1 11 -0.28494 27.113288462897295 30.402154718356012 35.73123186088886 0 0 0
239 1 8 -0.17888 28.738565702167058 29.9836303049307 32.581289118926605 0 0 0
240 1 6 -0.05292 24.22133893880524 31.734272999959735 32.09799730581675 0 0 0
241 1 5 0.25536 22.71690850046901 31.248541271549463 32.022016784788974 0 0 0
242 1 4 -0.15566 21.649771983311645 32.33327735800815 31.869135809013216 0 0 0
243 1 4 -0.14796 22.142467568088765 30.47613324945209 33.31887912133371 0 0 0
244 1 7 -0.05544 22.862272760660453 30.25897533900157 30.846846086672905 0 0 0
245 1 8 -0.22728 21.844225435440055 29.86187974825522 29.998971422686182 0 0 0
246 3 2 0.17658 37.101933778065934 39.40710051759911 28.88738661296669 0 0 0
247 3 3 0.22416 36.16850072768297 38.9353695118663 29.741006262863692 0 0 0
248 3 3 0.26386 36.38278920228798 39.05854358341519 31.176380882513076 0 0 0
249 3 2 0.19752 37.514921870079206 39.63674671533258 31.694763432918847 0 0 0
250 3 8 -0.09728000000000001 35.360173813164025 38.616061446987025 32.06739373935798 0 0 0
251 3 7 -0.10584 34.24206714721046 37.90680205906057 31.577025753427314 0 0 0
252 3 5 0.03926 33.18021510649237 37.22903710049164 32.3728855574123 0 0 0
253 3 6 -0.06812 32.395572139547305 38.27918141926419 33.24439952319664 0 0 0
254 3 5 0.18456 31.887444791145672 37.62204004681448 34.65292521880045 0 0 0
255 3 4 -0.12316 32.150803158384036 38.58649837636648 35.78709383195159 0 0 0
256 3 4 -0.11986 30.388863563847995 37.2761998918169 34.805144548088236 0 0 0
257 3 7 -0.01994 32.86097905824235 36.44144539319154 34.727517639206866 0 0 0
258 3 7 -0.06524000000000001 33.45842638755204 36.16758245479561 33.466886479230524 0 0 0
259 3 8 -0.14348 34.48166086684642 35.140847969139855 33.30884295962342 0 0 0
260 3 3 0.19146 34.81147441776098 34.36902027175513 34.42677713204668 0 0 0
261 3 3 0.21896 34.01497549609902 34.51562152424193 35.60933374980887 0 0 0
262 3 11 -0.31354 34.30495287721834 33.64056547564847 36.64243552940843 0 0 0
263 3 3 0.17306 34.79751843987023 32.36675129269422 36.28323822322812 0 0 0
264 3 7 -0.14734 34.57863468388787 31.26407016660985 37.19636603386196 0 0 0
265 3 9 0.31756 33.758872140051295 31.44929287818546 38.30804965538981 0 0 0
266 3 10 -0.44894 33.10928996948394 31.8067422468633 39.180956909598095 0 0 0
267 3 3 0.32032 35.28440152593219 30.019780434173104 36.88412095590752 0 0 0
268 3 3 0.34362 36.23754015461742 30.017315213380105 35.74391104770798 0 0 0
269 3 7 -0.14504 36.37260072367097 31.118793123906332 34.87667481678941 0 0 0
270 3 9 0.31666 37.21311521584086 31.00801819692953 33.70544352291573 0 0 0
271 3 10 -0.44894 37.924577864522 30.8992522034762 32.77306291149836 0 0 0
272 3 3 0.12686 35.59616110603395 32.27821833598907 35.10002737085705 0 0 0
273 3 11 -0.28494 35.697457030354045 33.39161041399433 34.3131651882862 0 0 0
274 3 8 -0.17888 33.13605090045543 35.60107164640442 35.889160750328315 0 0 0
275 3 6 -0.05292 32.17424025757022 36.711310648679714 31.270446539429813 0 0 0
276 3 5 0.25536 32.71680038471631 37.01935263468726 29.77222078649768 0 0 0
277 3 4 -0.15566 31.629709294165522 37.80851081529745 28.987402953239542 0 0 0
278 3 4 -0.14796 32.83958401053529 35.745733939244715 28.963648038125772 0 0 0
279 3 7 -0.05544 34.01499964418889 37.74426522630978 30.150366303371772 0 0 0
280 3 8 -0.22728 35.01928221301329 38.24270569461493 29.279924582587547 0 0 0
281 3 11 0.17658 23.854976186284247 17.23915205774545 12.86395074088201 0 1 1
282 3 3 0.22416 23.97101709722009 16.716078157166105 14.145570170877376 0 1 1
283 3 3 0.26386 24.75124663325071 15.498416035595394 14.353159081220326 0 1 1
284 3 11 0.19752 25.405332695023514 14.850984572431265 13.356339737111117 0 1 1
285 3 8 -0.09728000000000001 24.839217422151336 14.939646669263501 15.605057104895604 0 1 1
286 3 7 -0.10584 24.272848224209774 15.613750179334243 16.736264188003894 0 1 1
287 3 5 0.03926 24.427560656873073 15.10636943649354 18.164917130923058 0 1 1
288 3 6 -0.06812 25.971028424391495 14.913539240024075 18.4626359521233 0 1 1
289 3 5 0.18456 26.48275874782979 13.368770162073638 18.449802256244524 0 1 1
290 3 4 -0.12316 27.214463977189183 12.836654170788513 17.193014313848604 0 1 1
291 3 4 -0.11986 27.279678328329055 12.992824317509001 19.688158106620918 0 1 1
292 3 7 -0.01994 25.07585271009734 12.751342954376815 18.542263953866346 0 1 1
293 3 7 -0.06524000000000001 24.007688347874286 13.686503104622346 18.48129645033147 0 1 1
294 3 8 -0.14348 22.642222172098123 13.304234430871482 18.464862143110047 0 1 1
295 3 3 0.19146 22.318859220946866 11.917399556857921 18.67669457917966 0 1 1
296 3 3 0.21896 23.374546846182852 10.960150352928412 18.753218357532866 0 1 1
297 3 11 -0.31354 22.961172832067323 9.621148149945114 19.103008377285732 0 1 1
298 3 3 0.17306 21.78787690055151 9.470349946591735 19.87079035010079 0 1 1
299 3 7 -0.14734 21.712040244078644 50.27569177026632 20.761509999138102 0 0 1
300 3 9 0.31756 22.38139261079045 49.033225194773216 20.544452255088828 0 0 1
301 3 10 -0.44894 22.919071603399225 48.00536522568119 20.49986670681916 0 0 1
302 3 3 0.32032 20.976194837078896 50.37986406735785 21.954253382710874 0 0 1
303 3 3 0.34362 20.133165296725828 9.636177509524936 22.14366116288896 0 1 1
304 3 7 -0.14504 20.097885864501738 10.70182400589546 21.159659728880882 0 1 1
305 3 9 0.31666 19.359146977801892 11.872312044902023 21.3989542828836 0 1 1
306 3 10 -0.44894 18.82345568202893 12.88694562723003 21.682827568209824 0 1 1
307 3 3 0.12686 20.89225898686911 10.605194949844682 19.99944234145428 0 1 1
308 3 11 -0.28494 21.061133121413818 11.665563672817104 19.252930012229626 0 1 1
309 3 8 -0.17888 24.724766136228354 11.38377940426426 18.608118002397696 0 1 1
310 3 6 -0.05292 23.703181778142046 16.272175845082547 18.981616717121778 0 1 1
311 3 5 0.25536 23.123019451076498 17.411145680940518 17.907181550130527 0 1 1
312 3 4 -0.15566 23.622649403656645 18.85392788345608 18.210082807520674 0 1 1
313 3 4 -0.14796 21.587116438293442 17.572854648266247 17.92142419458873 0 1 1
314 3 7 -0.05544 23.569335628660344 16.838812533065955 16.60362029525085 0 1 1
315 3 8 -0.22728 23.32553884813052 17.402697341026233 15.262762684738629 0 1 1
316 1 11 0.17658 19.698289287246354 41.505836310466506 29.381534869321733 0 0 0
317 1 3 0.22416 19.5427310234776 42.433205049206876 28.47948714981164 0 0 0
318 1 3 0.26386 18.933760315648023 43.70173026666436 28.786186107952215 0 0 0
319 1 11 0.19752 18.55161514177042 43.89478881336188 30.131868851514877 0 0 0
320 1 8 -0.09728000000000001 18.60336009705493 44.630439663272476 27.784500642043437 0 0 0
321 1 7 -0.10584 18.983006072829486 44.260771117568524 26.431889446082227 0 0 0
322 1 5 0.03926 18.5151941864573 44.92633095288395 25.14334627114991 0 0 0
323 1 6 -0.06812 19.04737000572754 46.45293514745213 25.230857829630203 0 0 0
324 1 5 0.18456 17.806467706940097 47.38928051012897 25.348016967745476 0 0 0
325 1 4 -0.12316 17.8727050185779 48.258270945031136 26.691573187949878 0 0 0
326 1 4 -0.11986 17.897155011000265 48.380493390302654 24.184141481293995 0 0 0
327 1 7 -0.01994 16.58344898294585 46.497847082290946 25.226874097148425 0 0 0
328 1 7 -0.06524000000000001 16.967333668610493 45.113775773990774 25.034376824649605 0 0 0
329 1 8 -0.14348 15.955114560805747 44.08792326722928 24.918900990532542 0 0 0
330 1 3 0.19146 14.568113388760079 44.434972467252024 24.883086345399594 0 0 0
331 1 3 0.21896 14.220499219350145 45.81878858322499 25.083299070268193 0 0 0